 &FCI NORB= 28,NELEC= 14,MS2= 0,
  ORBSYM=1,1,1,1,1,1,1,1,1,1,1,1,1,1,2,2,2,2,2,2,3,3,3,3,3,3,4,4,
  ISYM=1,
 /
 0.3525924175582236E+01    1   1   1   1
 0.2718845816733545E-01    2   1   1   1
 0.4809161948925308E-03    2   1   2   1
 0.0463096650215186E+01    2   2   1   1
-0.3170161730359181E-01    2   2   2   1
 0.4748011756289207E+01    2   2   2   2
 0.0152238095071847E+01    3   1   1   1
 0.1444972766161605E-02    3   1   2   1
-0.4524441052055003E-02    3   1   2   2
 0.1387953406958669E-01    3   1   3   1
 0.6884531531810931E-02    3   2   1   1
 0.3142480019038951E-02    3   2   2   1
-0.0419038997634393E+01    3   2   2   2
-0.4774792646245279E-03    3   2   3   1
 0.6100507861475335E-01    3   2   3   2
 0.0629850078853309E+01    3   3   1   1
-0.2985499863779812E-02    3   3   2   1
 0.1042750806885328E+01    3   3   2   2
-0.8992072885226687E-02    3   3   3   1
-0.9427911925179923E-02    3   3   3   2
 0.0821235700057651E+01    3   3   3   3
 0.0186881249328918E+01    4   1   1   1
 0.1819398157232921E-02    4   1   2   1
-0.7546546934426661E-02    4   1   2   2
 0.1484492074319291E-01    4   1   3   1
 0.2925716571925834E-03    4   1   3   2
-0.4350221713064955E-02    4   1   3   3
 0.1697092706284158E-01    4   1   4   1
 0.1354819839466043E-01    4   2   1   1
-0.1220278787599295E-02    4   2   2   1
 0.0166889327558675E+01    4   2   2   2
-0.5667637998579094E-04    4   2   3   1
-0.1908762391136848E-01    4   2   3   2
 0.1813080896533087E-01    4   2   3   3
-0.9813616946861818E-04    4   2   4   1
 0.3034744319550665E-01    4   2   4   2
 0.0185891510657014E+01    4   3   1   1
 0.2159420214628743E-02    4   3   2   1
-0.0107284254034075E+01    4   3   2   2
-0.2135083151051461E-02    4   3   3   1
 0.1186233150889481E-01    4   3   3   2
 0.5442627684485787E-01    4   3   3   3
 0.8986479515772560E-03    4   3   4   1
 0.1730632418872576E-01    4   3   4   2
 0.0112448061403835E+01    4   3   4   3
 0.0514493543213334E+01    4   4   1   1
-0.3198432705075935E-02    4   4   2   1
 0.0971584546711857E+01    4   4   2   2
-0.3125745373435814E-02    4   4   3   1
-0.1702603732887954E-01    4   4   3   2
 0.0658681159775433E+01    4   4   3   3
-0.1687454270321077E-02    4   4   4   1
-0.1543820451840915E-01    4   4   4   2
-0.7078930122287023E-01    4   4   4   3
 0.0724756350920342E+01    4   4   4   4
 0.0000000000000000E+00    5   1   1   1
 0.0000000000000000E+00    5   1   2   1
 0.0000000000000000E+00    5   1   2   2
 0.0000000000000000E+00    5   1   3   1
 0.0000000000000000E+00    5   1   3   2
 0.0000000000000000E+00    5   1   3   3
 0.0000000000000000E+00    5   1   4   1
 0.0000000000000000E+00    5   1   4   2
 0.0000000000000000E+00    5   1   4   3
 0.0000000000000000E+00    5   1   4   4
 0.4616760208626947E-02    5   1   5   1
 0.0000000000000000E+00    5   2   1   1
 0.0000000000000000E+00    5   2   2   1
 0.0000000000000000E+00    5   2   2   2
 0.0000000000000000E+00    5   2   3   1
 0.0000000000000000E+00    5   2   3   2
 0.0000000000000000E+00    5   2   3   3
 0.0000000000000000E+00    5   2   4   1
 0.0000000000000000E+00    5   2   4   2
 0.0000000000000000E+00    5   2   4   3
 0.0000000000000000E+00    5   2   4   4
-0.3936219869423545E-03    5   2   5   1
 0.2361329573400777E-01    5   2   5   2
 0.0000000000000000E+00    5   3   1   1
 0.0000000000000000E+00    5   3   2   1
 0.0000000000000000E+00    5   3   2   2
 0.0000000000000000E+00    5   3   3   1
 0.0000000000000000E+00    5   3   3   2
 0.0000000000000000E+00    5   3   3   3
 0.0000000000000000E+00    5   3   4   1
 0.0000000000000000E+00    5   3   4   2
 0.0000000000000000E+00    5   3   4   3
 0.0000000000000000E+00    5   3   4   4
-0.4696095704812306E-02    5   3   5   1
 0.2345341496269337E-01    5   3   5   2
 0.0118101661926760E+01    5   3   5   3
 0.0000000000000000E+00    5   4   1   1
 0.0000000000000000E+00    5   4   2   1
 0.0000000000000000E+00    5   4   2   2
 0.0000000000000000E+00    5   4   3   1
 0.0000000000000000E+00    5   4   3   2
 0.0000000000000000E+00    5   4   3   3
 0.0000000000000000E+00    5   4   4   1
 0.0000000000000000E+00    5   4   4   2
 0.0000000000000000E+00    5   4   4   3
 0.0000000000000000E+00    5   4   4   4
-0.3142326303689791E-02    5   4   5   1
-0.1008161723018564E-01    5   4   5   2
-0.1950202967838438E-01    5   4   5   3
 0.4498598405189129E-01    5   4   5   4
 0.0524476068874589E+01    5   5   1   1
-0.2840668141744675E-02    5   5   2   1
 0.0916028061753036E+01    5   5   2   2
-0.4463555459783080E-02    5   5   3   1
-0.8339427278682091E-02    5   5   3   2
 0.0687073873836403E+01    5   5   3   3
-0.2643091235039247E-02    5   5   4   1
 0.3080710682936326E-02    5   5   4   2
-0.6104333970424517E-02    5   5   4   3
 0.0609520378409504E+01    5   5   4   4
 0.0000000000000000E+00    5   5   5   1
 0.0000000000000000E+00    5   5   5   2
 0.0000000000000000E+00    5   5   5   3
 0.0000000000000000E+00    5   5   5   4
 0.0654779858771886E+01    5   5   5   5
 0.0000000000000000E+00    6   1   1   1
 0.0000000000000000E+00    6   1   2   1
 0.0000000000000000E+00    6   1   2   2
 0.0000000000000000E+00    6   1   3   1
 0.0000000000000000E+00    6   1   3   2
 0.0000000000000000E+00    6   1   3   3
 0.0000000000000000E+00    6   1   4   1
 0.0000000000000000E+00    6   1   4   2
 0.0000000000000000E+00    6   1   4   3
 0.0000000000000000E+00    6   1   4   4
 0.0000000000000000E+00    6   1   5   1
 0.0000000000000000E+00    6   1   5   2
 0.0000000000000000E+00    6   1   5   3
 0.0000000000000000E+00    6   1   5   4
 0.0000000000000000E+00    6   1   5   5
 0.4616760208626916E-02    6   1   6   1
 0.0000000000000000E+00    6   2   1   1
 0.0000000000000000E+00    6   2   2   1
 0.0000000000000000E+00    6   2   2   2
 0.0000000000000000E+00    6   2   3   1
 0.0000000000000000E+00    6   2   3   2
 0.0000000000000000E+00    6   2   3   3
 0.0000000000000000E+00    6   2   4   1
 0.0000000000000000E+00    6   2   4   2
 0.0000000000000000E+00    6   2   4   3
 0.0000000000000000E+00    6   2   4   4
 0.0000000000000000E+00    6   2   5   1
 0.0000000000000000E+00    6   2   5   2
 0.0000000000000000E+00    6   2   5   3
 0.0000000000000000E+00    6   2   5   4
 0.0000000000000000E+00    6   2   5   5
-0.3936219869423550E-03    6   2   6   1
 0.2361329573400792E-01    6   2   6   2
 0.0000000000000000E+00    6   3   1   1
 0.0000000000000000E+00    6   3   2   1
 0.0000000000000000E+00    6   3   2   2
 0.0000000000000000E+00    6   3   3   1
 0.0000000000000000E+00    6   3   3   2
 0.0000000000000000E+00    6   3   3   3
 0.0000000000000000E+00    6   3   4   1
 0.0000000000000000E+00    6   3   4   2
 0.0000000000000000E+00    6   3   4   3
 0.0000000000000000E+00    6   3   4   4
 0.0000000000000000E+00    6   3   5   1
 0.0000000000000000E+00    6   3   5   2
 0.0000000000000000E+00    6   3   5   3
 0.0000000000000000E+00    6   3   5   4
 0.0000000000000000E+00    6   3   5   5
-0.4696095704812278E-02    6   3   6   1
 0.2345341496269347E-01    6   3   6   2
 0.0118101661926760E+01    6   3   6   3
 0.0000000000000000E+00    6   4   1   1
 0.0000000000000000E+00    6   4   2   1
 0.0000000000000000E+00    6   4   2   2
 0.0000000000000000E+00    6   4   3   1
 0.0000000000000000E+00    6   4   3   2
 0.0000000000000000E+00    6   4   3   3
 0.0000000000000000E+00    6   4   4   1
 0.0000000000000000E+00    6   4   4   2
 0.0000000000000000E+00    6   4   4   3
 0.0000000000000000E+00    6   4   4   4
 0.0000000000000000E+00    6   4   5   1
 0.0000000000000000E+00    6   4   5   2
 0.0000000000000000E+00    6   4   5   3
 0.0000000000000000E+00    6   4   5   4
 0.0000000000000000E+00    6   4   5   5
-0.3142326303689771E-02    6   4   6   1
-0.1008161723018573E-01    6   4   6   2
-0.1950202967838467E-01    6   4   6   3
 0.4498598405189146E-01    6   4   6   4
 0.0000000000000000E+00    6   5   1   1
 0.0000000000000000E+00    6   5   2   1
 0.0000000000000000E+00    6   5   2   2
 0.0000000000000000E+00    6   5   3   1
 0.0000000000000000E+00    6   5   3   2
 0.0000000000000000E+00    6   5   3   3
 0.0000000000000000E+00    6   5   4   1
 0.0000000000000000E+00    6   5   4   2
 0.0000000000000000E+00    6   5   4   3
 0.0000000000000000E+00    6   5   4   4
 0.0000000000000000E+00    6   5   5   1
 0.0000000000000000E+00    6   5   5   2
 0.0000000000000000E+00    6   5   5   3
 0.0000000000000000E+00    6   5   5   4
 0.0000000000000000E+00    6   5   5   5
 0.0000000000000000E+00    6   5   6   1
 0.0000000000000000E+00    6   5   6   2
 0.0000000000000000E+00    6   5   6   3
 0.0000000000000000E+00    6   5   6   4
 0.2825124695148262E-01    6   5   6   5
 0.0524476068874588E+01    6   6   1   1
-0.2840668141744694E-02    6   6   2   1
 0.0916028061753038E+01    6   6   2   2
-0.4463555459783084E-02    6   6   3   1
-0.8339427278682187E-02    6   6   3   2
 0.0687073873836404E+01    6   6   3   3
-0.2643091235039262E-02    6   6   4   1
 0.3080710682936312E-02    6   6   4   2
-0.6104333970424953E-02    6   6   4   3
 0.0609520378409505E+01    6   6   4   4
 0.0000000000000000E+00    6   6   5   1
 0.0000000000000000E+00    6   6   5   2
 0.0000000000000000E+00    6   6   5   3
 0.0000000000000000E+00    6   6   5   4
 0.0598277364868922E+01    6   6   5   5
 0.0000000000000000E+00    6   6   6   1
 0.0000000000000000E+00    6   6   6   2
 0.0000000000000000E+00    6   6   6   3
 0.0000000000000000E+00    6   6   6   4
 0.0000000000000000E+00    6   6   6   5
 0.0654779858771888E+01    6   6   6   6
 0.0152004266063472E+01    7   1   1   1
 0.1496623048740967E-02    7   1   2   1
 0.1104653191395048E-01    7   1   2   2
 0.6003830736891216E-02    7   1   3   1
 0.2267491005348415E-03    7   1   3   2
 0.1608387176929037E-01    7   1   3   3
 0.1101492641167712E-01    7   1   4   1
 0.5074723389739142E-03    7   1   4   2
 0.6185642631756131E-02    7   1   4   3
 0.9275472228066486E-02    7   1   4   4
 0.0000000000000000E+00    7   1   5   1
 0.0000000000000000E+00    7   1   5   2
 0.0000000000000000E+00    7   1   5   3
 0.0000000000000000E+00    7   1   5   4
 0.7542165603163504E-02    7   1   5   5
 0.0000000000000000E+00    7   1   6   1
 0.0000000000000000E+00    7   1   6   2
 0.0000000000000000E+00    7   1   6   3
 0.0000000000000000E+00    7   1   6   4
 0.0000000000000000E+00    7   1   6   5
 0.7542165603163506E-02    7   1   6   6
 0.2252067249508488E-01    7   1   7   1
 0.9500976502977690E-03    7   2   1   1
 0.3256832695167576E-03    7   2   2   1
-0.3723351793592962E-01    7   2   2   2
 0.5938570825765811E-03    7   2   3   1
-0.1203852111300129E-02    7   2   3   2
-0.1745707316839904E-01    7   2   3   3
 0.4752347597846978E-03    7   2   4   1
-0.1045568628343069E-01    7   2   4   2
-0.6819691449136608E-02    7   2   4   3
-0.8163072857835056E-03    7   2   4   4
 0.0000000000000000E+00    7   2   5   1
 0.0000000000000000E+00    7   2   5   2
 0.0000000000000000E+00    7   2   5   3
 0.0000000000000000E+00    7   2   5   4
-0.9550632405557372E-02    7   2   5   5
 0.0000000000000000E+00    7   2   6   1
 0.0000000000000000E+00    7   2   6   2
 0.0000000000000000E+00    7   2   6   3
 0.0000000000000000E+00    7   2   6   4
 0.0000000000000000E+00    7   2   6   5
-0.9550632405557388E-02    7   2   6   6
-0.4807270528064870E-03    7   2   7   1
 0.5548561807099385E-02    7   2   7   2
-0.3158894505741069E-01    7   3   1   1
 0.5996845980129925E-03    7   3   2   1
-0.0108488889463666E+01    7   3   2   2
 0.3920329183764267E-02    7   3   3   1
-0.2293051210853501E-02    7   3   3   2
-0.9757229846899340E-01    7   3   3   3
 0.2440655687664995E-02    7   3   4   1
-0.9591882994834374E-02    7   3   4   2
-0.3379791784175544E-01    7   3   4   3
-0.2951820689284830E-01    7   3   4   4
 0.0000000000000000E+00    7   3   5   1
 0.0000000000000000E+00    7   3   5   2
 0.0000000000000000E+00    7   3   5   3
 0.0000000000000000E+00    7   3   5   4
-0.5366196993414755E-01    7   3   5   5
 0.0000000000000000E+00    7   3   6   1
 0.0000000000000000E+00    7   3   6   2
 0.0000000000000000E+00    7   3   6   3
 0.0000000000000000E+00    7   3   6   4
 0.0000000000000000E+00    7   3   6   5
-0.5366196993414760E-01    7   3   6   6
-0.4199452642067297E-02    7   3   7   1
 0.6826103465991726E-02    7   3   7   2
 0.3274630116152134E-01    7   3   7   3
 0.8650072180709208E-01    7   4   1   1
 0.2255903352661774E-02    7   4   2   1
-0.0224621873642299E+01    7   4   2   2
 0.5637397312703413E-02    7   4   3   1
 0.5744295088219791E-02    7   4   3   2
-0.9952832167034737E-01    7   4   3   3
 0.4633467282869653E-02    7   4   4   1
 0.4435764014207845E-02    7   4   4   2
 0.4038866094066479E-01    7   4   4   3
-0.0122985929960984E+01    7   4   4   4
 0.0000000000000000E+00    7   4   5   1
 0.0000000000000000E+00    7   4   5   2
 0.0000000000000000E+00    7   4   5   3
 0.0000000000000000E+00    7   4   5   4
-0.7968995838973972E-01    7   4   5   5
 0.0000000000000000E+00    7   4   6   1
 0.0000000000000000E+00    7   4   6   2
 0.0000000000000000E+00    7   4   6   3
 0.0000000000000000E+00    7   4   6   4
 0.0000000000000000E+00    7   4   6   5
-0.7968995838974015E-01    7   4   6   6
-0.6429096087398695E-02    7   4   7   1
 0.2682248583137550E-02    7   4   7   2
 0.1795916410224592E-01    7   4   7   3
 0.7198283616945167E-01    7   4   7   4
 0.0000000000000000E+00    7   5   1   1
 0.0000000000000000E+00    7   5   2   1
 0.0000000000000000E+00    7   5   2   2
 0.0000000000000000E+00    7   5   3   1
 0.0000000000000000E+00    7   5   3   2
 0.0000000000000000E+00    7   5   3   3
 0.0000000000000000E+00    7   5   4   1
 0.0000000000000000E+00    7   5   4   2
 0.0000000000000000E+00    7   5   4   3
 0.0000000000000000E+00    7   5   4   4
-0.2565375805736854E-02    7   5   5   1
-0.7736094343203392E-03    7   5   5   2
 0.2853571653703236E-02    7   5   5   3
-0.2010116313811851E-02    7   5   5   4
 0.0000000000000000E+00    7   5   5   5
 0.0000000000000000E+00    7   5   6   1
 0.0000000000000000E+00    7   5   6   2
 0.0000000000000000E+00    7   5   6   3
 0.0000000000000000E+00    7   5   6   4
 0.0000000000000000E+00    7   5   6   5
 0.0000000000000000E+00    7   5   6   6
 0.0000000000000000E+00    7   5   7   1
 0.0000000000000000E+00    7   5   7   2
 0.0000000000000000E+00    7   5   7   3
 0.0000000000000000E+00    7   5   7   4
 0.1524736342878243E-01    7   5   7   5
 0.0000000000000000E+00    7   6   1   1
 0.0000000000000000E+00    7   6   2   1
 0.0000000000000000E+00    7   6   2   2
 0.0000000000000000E+00    7   6   3   1
 0.0000000000000000E+00    7   6   3   2
 0.0000000000000000E+00    7   6   3   3
 0.0000000000000000E+00    7   6   4   1
 0.0000000000000000E+00    7   6   4   2
 0.0000000000000000E+00    7   6   4   3
 0.0000000000000000E+00    7   6   4   4
 0.0000000000000000E+00    7   6   5   1
 0.0000000000000000E+00    7   6   5   2
 0.0000000000000000E+00    7   6   5   3
 0.0000000000000000E+00    7   6   5   4
 0.0000000000000000E+00    7   6   5   5
-0.2565375805736839E-02    7   6   6   1
-0.7736094343203397E-03    7   6   6   2
 0.2853571653703214E-02    7   6   6   3
-0.2010116313811920E-02    7   6   6   4
 0.0000000000000000E+00    7   6   6   5
 0.0000000000000000E+00    7   6   6   6
 0.0000000000000000E+00    7   6   7   1
 0.0000000000000000E+00    7   6   7   2
 0.0000000000000000E+00    7   6   7   3
 0.0000000000000000E+00    7   6   7   4
 0.0000000000000000E+00    7   6   7   5
 0.1524736342878241E-01    7   6   7   6
 0.0750535350751114E+01    7   7   1   1
 0.2267969511866746E-02    7   7   2   1
 0.0435185116147456E+01    7   7   2   2
 0.9473178515735909E-02    7   7   3   1
 0.9391586449697036E-03    7   7   3   2
 0.0443904500189821E+01    7   7   3   3
 0.8180054923230293E-02    7   7   4   1
 0.7026295932460709E-02    7   7   4   2
 0.6790069369207979E-01    7   7   4   3
 0.0398367221908142E+01    7   7   4   4
 0.0000000000000000E+00    7   7   5   1
 0.0000000000000000E+00    7   7   5   2
 0.0000000000000000E+00    7   7   5   3
 0.0000000000000000E+00    7   7   5   4
 0.0407082390559102E+01    7   7   5   5
 0.0000000000000000E+00    7   7   6   1
 0.0000000000000000E+00    7   7   6   2
 0.0000000000000000E+00    7   7   6   3
 0.0000000000000000E+00    7   7   6   4
 0.0000000000000000E+00    7   7   6   5
 0.0407082390559102E+01    7   7   6   6
-0.1022819279037012E-01    7   7   7   1
 0.1810339179005491E-03    7   7   7   2
-0.9819647678596842E-02    7   7   7   3
 0.6239517771470523E-01    7   7   7   4
 0.0000000000000000E+00    7   7   7   5
 0.0000000000000000E+00    7   7   7   6
 0.0596420057931914E+01    7   7   7   7
 0.0000000000000000E+00    8   1   1   1
 0.0000000000000000E+00    8   1   2   1
 0.0000000000000000E+00    8   1   2   2
 0.0000000000000000E+00    8   1   3   1
 0.0000000000000000E+00    8   1   3   2
 0.0000000000000000E+00    8   1   3   3
 0.0000000000000000E+00    8   1   4   1
 0.0000000000000000E+00    8   1   4   2
 0.0000000000000000E+00    8   1   4   3
 0.0000000000000000E+00    8   1   4   4
 0.8221665089984512E-02    8   1   5   1
-0.1983878510475919E-03    8   1   5   2
-0.7385497286302309E-02    8   1   5   3
-0.5122808830292256E-02    8   1   5   4
 0.0000000000000000E+00    8   1   5   5
 0.0000000000000000E+00    8   1   6   1
 0.0000000000000000E+00    8   1   6   2
 0.0000000000000000E+00    8   1   6   3
 0.0000000000000000E+00    8   1   6   4
 0.0000000000000000E+00    8   1   6   5
 0.0000000000000000E+00    8   1   6   6
 0.0000000000000000E+00    8   1   7   1
 0.0000000000000000E+00    8   1   7   2
 0.0000000000000000E+00    8   1   7   3
 0.0000000000000000E+00    8   1   7   4
-0.4799978694947633E-02    8   1   7   5
 0.0000000000000000E+00    8   1   7   6
 0.0000000000000000E+00    8   1   7   7
 0.1469241375786060E-01    8   1   8   1
 0.0000000000000000E+00    8   2   1   1
 0.0000000000000000E+00    8   2   2   1
 0.0000000000000000E+00    8   2   2   2
 0.0000000000000000E+00    8   2   3   1
 0.0000000000000000E+00    8   2   3   2
 0.0000000000000000E+00    8   2   3   3
 0.0000000000000000E+00    8   2   4   1
 0.0000000000000000E+00    8   2   4   2
 0.0000000000000000E+00    8   2   4   3
 0.0000000000000000E+00    8   2   4   4
 0.3205512493358642E-03    8   2   5   1
-0.2935818039573211E-01    8   2   5   2
-0.2634880128624639E-01    8   2   5   3
 0.1296032567375348E-01    8   2   5   4
 0.0000000000000000E+00    8   2   5   5
 0.0000000000000000E+00    8   2   6   1
 0.0000000000000000E+00    8   2   6   2
 0.0000000000000000E+00    8   2   6   3
 0.0000000000000000E+00    8   2   6   4
 0.0000000000000000E+00    8   2   6   5
 0.0000000000000000E+00    8   2   6   6
 0.0000000000000000E+00    8   2   7   1
 0.0000000000000000E+00    8   2   7   2
 0.0000000000000000E+00    8   2   7   3
 0.0000000000000000E+00    8   2   7   4
 0.1324085109655510E-02    8   2   7   5
 0.0000000000000000E+00    8   2   7   6
 0.0000000000000000E+00    8   2   7   7
-0.3438937956542766E-04    8   2   8   1
 0.3664281149049294E-01    8   2   8   2
 0.0000000000000000E+00    8   3   1   1
 0.0000000000000000E+00    8   3   2   1
 0.0000000000000000E+00    8   3   2   2
 0.0000000000000000E+00    8   3   3   1
 0.0000000000000000E+00    8   3   3   2
 0.0000000000000000E+00    8   3   3   3
 0.0000000000000000E+00    8   3   4   1
 0.0000000000000000E+00    8   3   4   2
 0.0000000000000000E+00    8   3   4   3
 0.0000000000000000E+00    8   3   4   4
-0.3354711921936910E-02    8   3   5   1
-0.1660432393883738E-01    8   3   5   2
-0.3546251930432869E-01    8   3   5   3
 0.3405403167242156E-01    8   3   5   4
 0.0000000000000000E+00    8   3   5   5
 0.0000000000000000E+00    8   3   6   1
 0.0000000000000000E+00    8   3   6   2
 0.0000000000000000E+00    8   3   6   3
 0.0000000000000000E+00    8   3   6   4
 0.0000000000000000E+00    8   3   6   5
 0.0000000000000000E+00    8   3   6   6
 0.0000000000000000E+00    8   3   7   1
 0.0000000000000000E+00    8   3   7   2
 0.0000000000000000E+00    8   3   7   3
 0.0000000000000000E+00    8   3   7   4
 0.8231112329924890E-02    8   3   7   5
 0.0000000000000000E+00    8   3   7   6
 0.0000000000000000E+00    8   3   7   7
-0.5886544081516816E-02    8   3   8   1
 0.2019636402598829E-01    8   3   8   2
 0.4760341035599931E-01    8   3   8   3
 0.0000000000000000E+00    8   4   1   1
 0.0000000000000000E+00    8   4   2   1
 0.0000000000000000E+00    8   4   2   2
 0.0000000000000000E+00    8   4   3   1
 0.0000000000000000E+00    8   4   3   2
 0.0000000000000000E+00    8   4   3   3
 0.0000000000000000E+00    8   4   4   1
 0.0000000000000000E+00    8   4   4   2
 0.0000000000000000E+00    8   4   4   3
 0.0000000000000000E+00    8   4   4   4
-0.4905483343866235E-02    8   4   5   1
 0.1364492401744776E-01    8   4   5   2
 0.5715547617078575E-01    8   4   5   3
-0.2109068662231281E-01    8   4   5   4
 0.0000000000000000E+00    8   4   5   5
 0.0000000000000000E+00    8   4   6   1
 0.0000000000000000E+00    8   4   6   2
 0.0000000000000000E+00    8   4   6   3
 0.0000000000000000E+00    8   4   6   4
 0.0000000000000000E+00    8   4   6   5
 0.0000000000000000E+00    8   4   6   6
 0.0000000000000000E+00    8   4   7   1
 0.0000000000000000E+00    8   4   7   2
 0.0000000000000000E+00    8   4   7   3
 0.0000000000000000E+00    8   4   7   4
 0.1652493186990903E-01    8   4   7   5
 0.0000000000000000E+00    8   4   7   6
 0.0000000000000000E+00    8   4   7   7
-0.8408992434066022E-02    8   4   8   1
-0.1566271884151610E-01    8   4   8   2
-0.1292943300376092E-01    8   4   8   3
 0.5295338063308238E-01    8   4   8   4
 0.0139286295281031E+01    8   5   1   1
 0.4443183546967544E-02    8   5   2   1
-0.0463559892870056E+01    8   5   2   2
 0.2984075819304848E-02    8   5   3   1
 0.1357668867145133E-01    8   5   3   2
-0.0148287939649693E+01    8   5   3   3
 0.3628708904483603E-02    8   5   4   1
 0.3485376212301209E-02    8   5   4   2
 0.7872879386503281E-01    8   5   4   3
-0.0167625182524423E+01    8   5   4   4
 0.0000000000000000E+00    8   5   5   1
 0.0000000000000000E+00    8   5   5   2
 0.0000000000000000E+00    8   5   5   3
 0.0000000000000000E+00    8   5   5   4
-0.0152085108005104E+01    8   5   5   5
 0.0000000000000000E+00    8   5   6   1
 0.0000000000000000E+00    8   5   6   2
 0.0000000000000000E+00    8   5   6   3
 0.0000000000000000E+00    8   5   6   4
 0.0000000000000000E+00    8   5   6   5
-0.0133184070067845E+01    8   5   6   6
-0.2248060094112038E-02    8   5   7   1
 0.5579068393571416E-02    8   5   7   2
 0.2240925579303309E-01    8   5   7   3
 0.8435471385369442E-01    8   5   7   4
 0.0000000000000000E+00    8   5   7   5
 0.0000000000000000E+00    8   5   7   6
 0.4536528549988906E-01    8   5   7   7
 0.0000000000000000E+00    8   5   8   1
 0.0000000000000000E+00    8   5   8   2
 0.0000000000000000E+00    8   5   8   3
 0.0000000000000000E+00    8   5   8   4
 0.0181858378598754E+01    8   5   8   5
 0.0000000000000000E+00    8   6   1   1
 0.0000000000000000E+00    8   6   2   1
 0.0000000000000000E+00    8   6   2   2
 0.0000000000000000E+00    8   6   3   1
 0.0000000000000000E+00    8   6   3   2
 0.0000000000000000E+00    8   6   3   3
 0.0000000000000000E+00    8   6   4   1
 0.0000000000000000E+00    8   6   4   2
 0.0000000000000000E+00    8   6   4   3
 0.0000000000000000E+00    8   6   4   4
 0.0000000000000000E+00    8   6   5   1
 0.0000000000000000E+00    8   6   5   2
 0.0000000000000000E+00    8   6   5   3
 0.0000000000000000E+00    8   6   5   4
 0.0000000000000000E+00    8   6   5   5
 0.0000000000000000E+00    8   6   6   1
 0.0000000000000000E+00    8   6   6   2
 0.0000000000000000E+00    8   6   6   3
 0.0000000000000000E+00    8   6   6   4
-0.9450518968629791E-02    8   6   6   5
 0.0000000000000000E+00    8   6   6   6
 0.0000000000000000E+00    8   6   7   1
 0.0000000000000000E+00    8   6   7   2
 0.0000000000000000E+00    8   6   7   3
 0.0000000000000000E+00    8   6   7   4
 0.0000000000000000E+00    8   6   7   5
 0.0000000000000000E+00    8   6   7   6
 0.0000000000000000E+00    8   6   7   7
 0.0000000000000000E+00    8   6   8   1
 0.0000000000000000E+00    8   6   8   2
 0.0000000000000000E+00    8   6   8   3
 0.0000000000000000E+00    8   6   8   4
 0.0000000000000000E+00    8   6   8   5
 0.1738639066057705E-01    8   6   8   6
 0.0000000000000000E+00    8   7   1   1
 0.0000000000000000E+00    8   7   2   1
 0.0000000000000000E+00    8   7   2   2
 0.0000000000000000E+00    8   7   3   1
 0.0000000000000000E+00    8   7   3   2
 0.0000000000000000E+00    8   7   3   3
 0.0000000000000000E+00    8   7   4   1
 0.0000000000000000E+00    8   7   4   2
 0.0000000000000000E+00    8   7   4   3
 0.0000000000000000E+00    8   7   4   4
-0.5351170790184188E-02    8   7   5   1
 0.1843489372653184E-02    8   7   5   2
 0.2030533187336247E-01    8   7   5   3
 0.1736409545824405E-01    8   7   5   4
 0.0000000000000000E+00    8   7   5   5
 0.0000000000000000E+00    8   7   6   1
 0.0000000000000000E+00    8   7   6   2
 0.0000000000000000E+00    8   7   6   3
 0.0000000000000000E+00    8   7   6   4
 0.0000000000000000E+00    8   7   6   5
 0.0000000000000000E+00    8   7   6   6
 0.0000000000000000E+00    8   7   7   1
 0.0000000000000000E+00    8   7   7   2
 0.0000000000000000E+00    8   7   7   3
 0.0000000000000000E+00    8   7   7   4
 0.1606037660096136E-01    8   7   7   5
 0.0000000000000000E+00    8   7   7   6
 0.0000000000000000E+00    8   7   7   7
-0.9391867658058611E-02    8   7   8   1
-0.7722513818878897E-03    8   7   8   2
 0.1197906803219662E-01    8   7   8   3
 0.1636922298567979E-01    8   7   8   4
 0.0000000000000000E+00    8   7   8   5
 0.0000000000000000E+00    8   7   8   6
 0.3656761745834439E-01    8   7   8   7
 0.0664243849688181E+01    8   8   1   1
-0.1812919133520045E-02    8   8   2   1
 0.0920595611336944E+01    8   8   2   2
-0.6521714041967058E-03    8   8   3   1
-0.1323316150544931E-01    8   8   3   2
 0.0647669110331354E+01    8   8   3   3
 0.9163987875977516E-03    8   8   4   1
 0.3197438977483913E-02    8   8   4   2
 0.1357056730140812E-01    8   8   4   3
 0.0589695570518026E+01    8   8   4   4
 0.0000000000000000E+00    8   8   5   1
 0.0000000000000000E+00    8   8   5   2
 0.0000000000000000E+00    8   8   5   3
 0.0000000000000000E+00    8   8   5   4
 0.0618059846461313E+01    8   8   5   5
 0.0000000000000000E+00    8   8   6   1
 0.0000000000000000E+00    8   8   6   2
 0.0000000000000000E+00    8   8   6   3
 0.0000000000000000E+00    8   8   6   4
 0.0000000000000000E+00    8   8   6   5
 0.0572775002051654E+01    8   8   6   6
 0.5227394987428348E-02    8   8   7   1
-0.6739422625309233E-02    8   8   7   2
-0.3943450002775395E-01    8   8   7   3
-0.4487298301338320E-01    8   8   7   4
 0.0000000000000000E+00    8   8   7   5
 0.0000000000000000E+00    8   8   7   6
 0.0471455405990302E+01    8   8   7   7
 0.0000000000000000E+00    8   8   8   1
 0.0000000000000000E+00    8   8   8   2
 0.0000000000000000E+00    8   8   8   3
 0.0000000000000000E+00    8   8   8   4
-0.0104920677857864E+01    8   8   8   5
 0.0000000000000000E+00    8   8   8   6
 0.0000000000000000E+00    8   8   8   7
 0.0638897585843879E+01    8   8   8   8
 0.0000000000000000E+00    9   1   1   1
 0.0000000000000000E+00    9   1   2   1
 0.0000000000000000E+00    9   1   2   2
 0.0000000000000000E+00    9   1   3   1
 0.0000000000000000E+00    9   1   3   2
 0.0000000000000000E+00    9   1   3   3
 0.0000000000000000E+00    9   1   4   1
 0.0000000000000000E+00    9   1   4   2
 0.0000000000000000E+00    9   1   4   3
 0.0000000000000000E+00    9   1   4   4
 0.0000000000000000E+00    9   1   5   1
 0.0000000000000000E+00    9   1   5   2
 0.0000000000000000E+00    9   1   5   3
 0.0000000000000000E+00    9   1   5   4
 0.0000000000000000E+00    9   1   5   5
 0.8221665089984493E-02    9   1   6   1
-0.1983878510475928E-03    9   1   6   2
-0.7385497286302306E-02    9   1   6   3
-0.5122808830292245E-02    9   1   6   4
 0.0000000000000000E+00    9   1   6   5
 0.0000000000000000E+00    9   1   6   6
 0.0000000000000000E+00    9   1   7   1
 0.0000000000000000E+00    9   1   7   2
 0.0000000000000000E+00    9   1   7   3
 0.0000000000000000E+00    9   1   7   4
 0.0000000000000000E+00    9   1   7   5
-0.4799978694947624E-02    9   1   7   6
 0.0000000000000000E+00    9   1   7   7
 0.0000000000000000E+00    9   1   8   1
 0.0000000000000000E+00    9   1   8   2
 0.0000000000000000E+00    9   1   8   3
 0.0000000000000000E+00    9   1   8   4
 0.0000000000000000E+00    9   1   8   5
 0.0000000000000000E+00    9   1   8   6
 0.0000000000000000E+00    9   1   8   7
 0.0000000000000000E+00    9   1   8   8
 0.1469241375786064E-01    9   1   9   1
 0.0000000000000000E+00    9   2   1   1
 0.0000000000000000E+00    9   2   2   1
 0.0000000000000000E+00    9   2   2   2
 0.0000000000000000E+00    9   2   3   1
 0.0000000000000000E+00    9   2   3   2
 0.0000000000000000E+00    9   2   3   3
 0.0000000000000000E+00    9   2   4   1
 0.0000000000000000E+00    9   2   4   2
 0.0000000000000000E+00    9   2   4   3
 0.0000000000000000E+00    9   2   4   4
 0.0000000000000000E+00    9   2   5   1
 0.0000000000000000E+00    9   2   5   2
 0.0000000000000000E+00    9   2   5   3
 0.0000000000000000E+00    9   2   5   4
 0.0000000000000000E+00    9   2   5   5
 0.3205512493358637E-03    9   2   6   1
-0.2935818039573218E-01    9   2   6   2
-0.2634880128624640E-01    9   2   6   3
 0.1296032567375352E-01    9   2   6   4
 0.0000000000000000E+00    9   2   6   5
 0.0000000000000000E+00    9   2   6   6
 0.0000000000000000E+00    9   2   7   1
 0.0000000000000000E+00    9   2   7   2
 0.0000000000000000E+00    9   2   7   3
 0.0000000000000000E+00    9   2   7   4